;;
;; Generated by CHARMM-GUI FF-Converter
;;
;; Correspondance:
;; jul316@lehigh.edu or wonpil@lehigh.edu
;;
;; The main GROMACS topology file
;;

; Include forcefield parameters
#include "toppar/forcefield.itp"
#include "toppar/POPG.itp"
#include "toppar/POPE.itp"
#include "toppar/TMCL1.itp"
#include "toppar/POT.itp"
#include "toppar/CLA.itp"
#include "toppar/TIP3.itp"

[ system ]
; Name
Title

[ molecules ]
; Compound	#mols
POPG  	          64
POPE  	         192
TMCL1 	          32
POT   	         129
CLA   	          33
TIP3  	       13087
